<?xml version="1.0" encoding="UTF-8"?>

<!-- generated on 2026-04-16T13:55:41.089803+07:00 by Eclipse SUMO GUI 1.26.0
<sumoConfiguration xmlns:xsi="http://www.w3.org/2001/XMLSchema-instance" xsi:noNamespaceSchemaLocation="http://sumo.dlr.de/xsd/sumoConfiguration.xsd">

    <input>
        <net-file value="D:\phong81\its\sumo\2026-04-16-09-32-25\osm.net.xml.gz"/>
        <route-files value="D:\phong81\its\sumo\2026-04-16-09-32-25\osm.passenger.trips.xml"/>
        <additional-files value="D:\phong81\its\sumo\2026-04-16-09-32-25\osm.poly.xml.gz,D:\phong81\its\sumo\2026-04-16-09-32-25\output.add.xml"/>
    </input>

    <output>
        <tripinfo-output value="D:\phong81\its\sumo\2026-04-16-09-32-25\tripinfos.xml"/>
        <statistic-output value="D:\phong81\its\sumo\2026-04-16-09-32-25\stats.xml"/>
    </output>

    <report>
        <verbose value="true"/>
        <duration-log.statistics value="true"/>
        <no-step-log value="true"/>
    </report>

    <gui_only>
        <gui-settings-file value="D:\phong81\its\sumo\2026-04-16-09-32-25\osm.view.xml"/>
    </gui_only>

</sumoConfiguration>
-->

<meandata xmlns:xsi="http://www.w3.org/2001/XMLSchema-instance" xsi:noNamespaceSchemaLocation="http://sumo.dlr.de/xsd/meandata_file.xsd">
</meandata>
